<?xml version="1.0" encoding="UTF-8"?>

<!-- generated on 2026-01-28 14:17:04 by Eclipse SUMO sumo Version 1.12.0
<configuration xmlns:xsi="http://www.w3.org/2001/XMLSchema-instance" xsi:noNamespaceSchemaLocation="http://sumo.dlr.de/xsd/sumoConfiguration.xsd">

    <input>
        <net-file value="network.net.xml"/>
        <route-files value="routes.rou.xml"/>
    </input>

    <output>
        <tripinfo-output value="tripinfo.xml"/>
    </output>

    <time>
        <end value="4000"/>
    </time>

    <report>
        <duration-log.disable value="true"/>
        <no-step-log value="true"/>
    </report>

</configuration>
-->

<tripinfos xmlns:xsi="http://www.w3.org/2001/XMLSchema-instance" xsi:noNamespaceSchemaLocation="http://sumo.dlr.de/xsd/tripinfo_file.xsd">
    <tripinfo id="veh0" depart="1.00" departLane="e1_0" departPos="5.10" departSpeed="0.00" departDelay="0.21" arrival="75.00" arrivalLane="e1_0" arrivalPos="1000.00" arrivalSpeed="14.58" duration="74.00" routeLength="994.90" waitingTime="0.00" waitingCount="0" stopTime="0.00" timeLoss="6.46" rerouteNo="0" devices="tripinfo_veh0" vType="passenger" speedFactor="1.06" vaporized=""/>
    <tripinfo id="veh1" depart="14.00" departLane="e1_0" departPos="5.10" departSpeed="0.00" departDelay="0.88" arrival="97.00" arrivalLane="e1_0" arrivalPos="1000.00" arrivalSpeed="12.36" duration="83.00" routeLength="994.90" waitingTime="0.00" waitingCount="0" stopTime="0.00" timeLoss="6.62" rerouteNo="0" devices="tripinfo_veh1" vType="passenger" speedFactor="0.94" vaporized=""/>
    <tripinfo id="veh2" depart="17.00" departLane="e1_0" departPos="5.10" departSpeed="0.00" departDelay="1.48" arrival="99.00" arrivalLane="e1_0" arrivalPos="1000.00" arrivalSpeed="13.16" duration="82.00" routeLength="994.90" waitingTime="0.00" waitingCount="0" stopTime="0.00" timeLoss="10.73" rerouteNo="0" devices="tripinfo_veh2" vType="passenger" speedFactor="1.01" vaporized=""/>
    <tripinfo id="veh3" depart="20.00" departLane="e1_0" departPos="5.10" departSpeed="0.00" departDelay="3.03" arrival="101.00" arrivalLane="e1_0" arrivalPos="1000.00" arrivalSpeed="14.05" duration="81.00" routeLength="994.90" waitingTime="0.00" waitingCount="0" stopTime="0.00" timeLoss="14.06" rerouteNo="0" devices="tripinfo_veh3" vType="passenger" speedFactor="1.08" vaporized=""/>
    <tripinfo id="veh4" depart="23.00" departLane="e1_0" departPos="5.10" departSpeed="0.00" departDelay="5.26" arrival="102.00" arrivalLane="e1_0" arrivalPos="1000.00" arrivalSpeed="14.08" duration="79.00" routeLength="994.90" waitingTime="0.00" waitingCount="0" stopTime="0.00" timeLoss="9.43" rerouteNo="0" devices="tripinfo_veh4" vType="passenger" speedFactor="1.03" vaporized=""/>
    <tripinfo id="veh5" depart="30.00" departLane="e1_0" departPos="5.10" departSpeed="0.00" departDelay="0.03" arrival="124.00" arrivalLane="e1_0" arrivalPos="1000.00" arrivalSpeed="11.15" duration="94.00" routeLength="994.90" waitingTime="0.00" waitingCount="0" stopTime="0.00" timeLoss="7.55" rerouteNo="0" devices="tripinfo_veh5" vType="passenger" speedFactor="0.83" vaporized=""/>
    <tripinfo id="veh6" depart="33.00" departLane="e1_0" departPos="5.10" departSpeed="0.00" departDelay="1.69" arrival="126.00" arrivalLane="e1_0" arrivalPos="1000.00" arrivalSpeed="14.10" duration="93.00" routeLength="994.90" waitingTime="0.00" waitingCount="0" stopTime="0.00" timeLoss="23.84" rerouteNo="0" devices="tripinfo_veh6" vType="passenger" speedFactor="1.05" vaporized=""/>
    <tripinfo id="veh7" depart="36.00" departLane="e1_0" departPos="5.10" departSpeed="0.00" departDelay="3.20" arrival="128.00" arrivalLane="e1_0" arrivalPos="1000.00" arrivalSpeed="11.24" duration="92.00" routeLength="994.90" waitingTime="0.00" waitingCount="0" stopTime="0.00" timeLoss="10.53" rerouteNo="0" devices="tripinfo_veh7" vType="passenger" speedFactor="0.89" vaporized=""/>
    <tripinfo id="veh8" depart="42.00" departLane="e1_0" departPos="5.10" departSpeed="0.00" departDelay="0.69" arrival="129.00" arrivalLane="e1_0" arrivalPos="1000.00" arrivalSpeed="12.84" duration="87.00" routeLength="994.90" waitingTime="0.00" waitingCount="0" stopTime="0.00" timeLoss="10.65" rerouteNo="0" devices="tripinfo_veh8" vType="passenger" speedFactor="0.94" vaporized=""/>
    <tripinfo id="veh9" depart="45.00" departLane="e1_0" departPos="5.10" departSpeed="0.00" departDelay="2.72" arrival="136.00" arrivalLane="e1_0" arrivalPos="1000.00" arrivalSpeed="10.99" duration="91.00" routeLength="994.90" waitingTime="0.00" waitingCount="0" stopTime="0.00" timeLoss="6.86" rerouteNo="0" devices="tripinfo_veh9" vType="passenger" speedFactor="0.86" vaporized=""/>
    <tripinfo id="veh10" depart="48.00" departLane="e1_0" departPos="5.10" departSpeed="0.00" departDelay="5.39" arrival="138.00" arrivalLane="e1_0" arrivalPos="1000.00" arrivalSpeed="14.20" duration="90.00" routeLength="994.90" waitingTime="0.00" waitingCount="0" stopTime="0.00" timeLoss="23.52" rerouteNo="0" devices="tripinfo_veh10" vType="passenger" speedFactor="1.09" vaporized=""/>
    <tripinfo id="veh11" depart="51.00" departLane="e1_0" departPos="5.10" departSpeed="0.00" departDelay="8.05" arrival="139.00" arrivalLane="e1_0" arrivalPos="1000.00" arrivalSpeed="13.55" duration="88.00" routeLength="994.90" waitingTime="0.00" waitingCount="0" stopTime="0.00" timeLoss="18.02" rerouteNo="0" devices="tripinfo_veh11" vType="passenger" speedFactor="1.03" vaporized=""/>
    <tripinfo id="veh12" depart="54.00" departLane="e1_0" departPos="5.10" departSpeed="0.00" departDelay="8.35" arrival="141.00" arrivalLane="e1_0" arrivalPos="1000.00" arrivalSpeed="14.51" duration="87.00" routeLength="994.90" waitingTime="0.00" waitingCount="0" stopTime="0.00" timeLoss="18.11" rerouteNo="0" devices="tripinfo_veh12" vType="passenger" speedFactor="1.05" vaporized=""/>
    <tripinfo id="veh13" depart="57.00" departLane="e1_0" departPos="5.10" departSpeed="0.00" departDelay="10.21" arrival="143.00" arrivalLane="e1_0" arrivalPos="1000.00" arrivalSpeed="15.42" duration="86.00" routeLength="994.90" waitingTime="0.00" waitingCount="0" stopTime="0.00" timeLoss="21.35" rerouteNo="0" devices="tripinfo_veh13" vType="passenger" speedFactor="1.12" vaporized=""/>
    <tripinfo id="veh14" depart="65.00" departLane="e1_0" departPos="5.10" departSpeed="0.00" departDelay="0.01" arrival="144.00" arrivalLane="e1_0" arrivalPos="1000.00" arrivalSpeed="13.57" duration="79.00" routeLength="994.90" waitingTime="0.00" waitingCount="0" stopTime="0.00" timeLoss="6.69" rerouteNo="0" devices="tripinfo_veh14" vType="passenger" speedFactor="0.99" vaporized=""/>
    <tripinfo id="veh15" depart="70.00" departLane="e1_0" departPos="5.10" departSpeed="0.00" departDelay="0.14" arrival="154.00" arrivalLane="e1_0" arrivalPos="1000.00" arrivalSpeed="12.49" duration="84.00" routeLength="994.90" waitingTime="0.00" waitingCount="0" stopTime="0.00" timeLoss="6.58" rerouteNo="0" devices="tripinfo_veh15" vType="passenger" speedFactor="0.93" vaporized=""/>
    <tripinfo id="veh16" depart="73.00" departLane="e1_0" departPos="5.10" departSpeed="0.00" departDelay="2.03" arrival="162.00" arrivalLane="e1_0" arrivalPos="1000.00" arrivalSpeed="12.13" duration="89.00" routeLength="994.90" waitingTime="0.00" waitingCount="0" stopTime="0.00" timeLoss="6.63" rerouteNo="0" devices="tripinfo_veh16" vType="passenger" speedFactor="0.88" vaporized=""/>
    <tripinfo id="veh17" depart="76.00" departLane="e1_0" departPos="5.10" departSpeed="0.00" departDelay="1.62" arrival="163.00" arrivalLane="e1_0" arrivalPos="1000.00" arrivalSpeed="12.22" duration="87.00" routeLength="994.90" waitingTime="0.00" waitingCount="0" stopTime="0.00" timeLoss="10.90" rerouteNo="0" devices="tripinfo_veh17" vType="passenger" speedFactor="0.94" vaporized=""/>
    <tripinfo id="veh18" depart="79.00" departLane="e1_0" departPos="5.10" departSpeed="0.00" departDelay="1.97" arrival="165.00" arrivalLane="e1_0" arrivalPos="1000.00" arrivalSpeed="11.86" duration="86.00" routeLength="994.90" waitingTime="0.00" waitingCount="0" stopTime="0.00" timeLoss="9.21" rerouteNo="0" devices="tripinfo_veh18" vType="passenger" speedFactor="0.94" vaporized=""/>
    <tripinfo id="veh19" depart="82.00" departLane="e1_0" departPos="5.10" departSpeed="0.00" departDelay="3.22" arrival="167.00" arrivalLane="e1_0" arrivalPos="1000.00" arrivalSpeed="15.90" duration="85.00" routeLength="994.90" waitingTime="0.00" waitingCount="0" stopTime="0.00" timeLoss="22.39" rerouteNo="0" devices="tripinfo_veh19" vType="passenger" speedFactor="1.16" vaporized=""/>
    <tripinfo id="veh20" depart="85.00" departLane="e1_0" departPos="5.10" departSpeed="0.00" departDelay="3.04" arrival="169.00" arrivalLane="e1_0" arrivalPos="1000.00" arrivalSpeed="13.47" duration="84.00" routeLength="994.90" waitingTime="0.00" waitingCount="0" stopTime="0.00" timeLoss="12.76" rerouteNo="0" devices="tripinfo_veh20" vType="passenger" speedFactor="1.02" vaporized=""/>
    <tripinfo id="veh21" depart="89.00" departLane="e1_0" departPos="5.10" departSpeed="0.00" departDelay="0.21" arrival="170.00" arrivalLane="e1_0" arrivalPos="1000.00" arrivalSpeed="13.07" duration="81.00" routeLength="994.90" waitingTime="0.00" waitingCount="0" stopTime="0.00" timeLoss="9.96" rerouteNo="0" devices="tripinfo_veh21" vType="passenger" speedFactor="1.01" vaporized=""/>
    <tripinfo id="veh22" depart="92.00" departLane="e1_0" departPos="5.10" departSpeed="0.00" departDelay="1.77" arrival="173.00" arrivalLane="e1_0" arrivalPos="1000.00" arrivalSpeed="12.34" duration="81.00" routeLength="994.90" waitingTime="0.00" waitingCount="0" stopTime="0.00" timeLoss="6.83" rerouteNo="0" devices="tripinfo_veh22" vType="passenger" speedFactor="0.98" vaporized=""/>
    <tripinfo id="veh23" depart="96.00" departLane="e1_0" departPos="5.10" departSpeed="0.00" departDelay="0.96" arrival="184.00" arrivalLane="e1_0" arrivalPos="1000.00" arrivalSpeed="12.36" duration="88.00" routeLength="994.90" waitingTime="0.00" waitingCount="0" stopTime="0.00" timeLoss="7.43" rerouteNo="0" devices="tripinfo_veh23" vType="passenger" speedFactor="0.89" vaporized=""/>
    <tripinfo id="veh24" depart="102.00" departLane="e1_0" departPos="5.10" departSpeed="0.00" departDelay="0.90" arrival="197.00" arrivalLane="e1_0" arrivalPos="1000.00" arrivalSpeed="11.27" duration="95.00" routeLength="994.90" waitingTime="0.00" waitingCount="0" stopTime="0.00" timeLoss="7.41" rerouteNo="0" devices="tripinfo_veh24" vType="passenger" speedFactor="0.83" vaporized=""/>
    <tripinfo id="veh25" depart="105.00" departLane="e1_0" departPos="5.10" departSpeed="0.00" departDelay="1.78" arrival="198.00" arrivalLane="e1_0" arrivalPos="1000.00" arrivalSpeed="11.71" duration="93.00" routeLength="994.90" waitingTime="0.00" waitingCount="0" stopTime="0.00" timeLoss="10.84" rerouteNo="0" devices="tripinfo_veh25" vType="passenger" speedFactor="0.87" vaporized=""/>
    <tripinfo id="veh26" depart="113.00" departLane="e1_0" departPos="5.10" departSpeed="0.00" departDelay="0.30" arrival="200.00" arrivalLane="e1_0" arrivalPos="1000.00" arrivalSpeed="11.66" duration="87.00" routeLength="994.90" waitingTime="0.00" waitingCount="0" stopTime="0.00" timeLoss="8.63" rerouteNo="0" devices="tripinfo_veh26" vType="passenger" speedFactor="0.92" vaporized=""/>
    <tripinfo id="veh27" depart="115.00" departLane="e1_0" departPos="5.10" departSpeed="0.00" departDelay="1.23" arrival="202.00" arrivalLane="e1_0" arrivalPos="1000.00" arrivalSpeed="12.43" duration="87.00" routeLength="994.90" waitingTime="0.00" waitingCount="0" stopTime="0.00" timeLoss="11.10" rerouteNo="0" devices="tripinfo_veh27" vType="passenger" speedFactor="0.95" vaporized=""/>
    <tripinfo id="veh28" depart="118.00" departLane="e1_0" departPos="5.10" departSpeed="0.00" departDelay="3.70" arrival="204.00" arrivalLane="e1_0" arrivalPos="1000.00" arrivalSpeed="15.16" duration="86.00" routeLength="994.90" waitingTime="0.00" waitingCount="0" stopTime="0.00" timeLoss="21.81" rerouteNo="0" devices="tripinfo_veh28" vType="passenger" speedFactor="1.13" vaporized=""/>
    <tripinfo id="veh29" depart="121.00" departLane="e1_0" departPos="5.10" departSpeed="0.00" departDelay="5.07" arrival="205.00" arrivalLane="e1_0" arrivalPos="1000.00" arrivalSpeed="11.97" duration="84.00" routeLength="994.90" waitingTime="0.00" waitingCount="0" stopTime="0.00" timeLoss="7.14" rerouteNo="0" devices="tripinfo_veh29" vType="passenger" speedFactor="0.93" vaporized=""/>
    <tripinfo id="veh30" depart="124.00" departLane="e1_0" departPos="5.10" departSpeed="0.00" departDelay="5.05" arrival="207.00" arrivalLane="e1_0" arrivalPos="1000.00" arrivalSpeed="14.30" duration="83.00" routeLength="994.90" waitingTime="0.00" waitingCount="0" stopTime="0.00" timeLoss="21.90" rerouteNo="0" devices="tripinfo_veh30" vType="passenger" speedFactor="1.18" vaporized=""/>
    <tripinfo id="veh31" depart="127.00" departLane="e1_0" departPos="5.10" departSpeed="0.00" departDelay="7.91" arrival="209.00" arrivalLane="e1_0" arrivalPos="1000.00" arrivalSpeed="15.65" duration="82.00" routeLength="994.90" waitingTime="0.00" waitingCount="0" stopTime="0.00" timeLoss="19.18" rerouteNo="0" devices="tripinfo_veh31" vType="passenger" speedFactor="1.15" vaporized=""/>
    <tripinfo id="veh32" depart="130.00" departLane="e1_0" departPos="5.10" departSpeed="0.00" departDelay="8.83" arrival="211.00" arrivalLane="e1_0" arrivalPos="1000.00" arrivalSpeed="13.65" duration="81.00" routeLength="994.90" waitingTime="0.00" waitingCount="0" stopTime="0.00" timeLoss="8.92" rerouteNo="0" devices="tripinfo_veh32" vType="passenger" speedFactor="1.01" vaporized=""/>
    <tripinfo id="veh33" depart="133.00" departLane="e1_0" departPos="5.10" departSpeed="0.00" departDelay="4.03" arrival="212.00" arrivalLane="e1_0" arrivalPos="1000.00" arrivalSpeed="14.98" duration="79.00" routeLength="994.90" waitingTime="0.00" waitingCount="0" stopTime="0.00" timeLoss="17.76" rerouteNo="0" devices="tripinfo_veh33" vType="passenger" speedFactor="1.17" vaporized=""/>
    <tripinfo id="veh34" depart="140.00" departLane="e1_0" departPos="5.10" departSpeed="0.00" departDelay="0.04" arrival="220.00" arrivalLane="e1_0" arrivalPos="1000.00" arrivalSpeed="13.05" duration="80.00" routeLength="994.90" waitingTime="0.00" waitingCount="0" stopTime="0.00" timeLoss="7.14" rerouteNo="0" devices="tripinfo_veh34" vType="passenger" speedFactor="0.99" vaporized=""/>
    <tripinfo id="veh35" depart="143.00" departLane="e1_0" departPos="5.10" departSpeed="0.00" departDelay="2.38" arrival="221.00" arrivalLane="e1_0" arrivalPos="1000.00" arrivalSpeed="13.19" duration="78.00" routeLength="994.90" waitingTime="0.00" waitingCount="0" stopTime="0.00" timeLoss="7.71" rerouteNo="0" devices="tripinfo_veh35" vType="passenger" speedFactor="1.02" vaporized=""/>
    <tripinfo id="veh36" depart="146.00" departLane="e1_0" departPos="5.10" departSpeed="0.00" departDelay="4.69" arrival="226.00" arrivalLane="e1_0" arrivalPos="1000.00" arrivalSpeed="13.52" duration="80.00" routeLength="994.90" waitingTime="0.00" waitingCount="0" stopTime="0.00" timeLoss="6.23" rerouteNo="0" devices="tripinfo_veh36" vType="passenger" speedFactor="0.97" vaporized=""/>
    <tripinfo id="veh37" depart="149.00" departLane="e1_0" departPos="5.10" departSpeed="0.00" departDelay="6.65" arrival="228.00" arrivalLane="e1_0" arrivalPos="1000.00" arrivalSpeed="15.98" duration="79.00" routeLength="994.90" waitingTime="0.00" waitingCount="0" stopTime="0.00" timeLoss="17.65" rerouteNo="0" devices="tripinfo_veh37" vType="passenger" speedFactor="1.18" vaporized=""/>
    <tripinfo id="veh38" depart="152.00" departLane="e1_0" departPos="5.10" departSpeed="0.00" departDelay="8.70" arrival="230.00" arrivalLane="e1_0" arrivalPos="1000.00" arrivalSpeed="14.98" duration="78.00" routeLength="994.90" waitingTime="0.00" waitingCount="0" stopTime="0.00" timeLoss="12.10" rerouteNo="0" devices="tripinfo_veh38" vType="passenger" speedFactor="1.10" vaporized=""/>
    <tripinfo id="veh39" depart="155.00" departLane="e1_0" departPos="5.10" departSpeed="0.00" departDelay="9.72" arrival="241.00" arrivalLane="e1_0" arrivalPos="1000.00" arrivalSpeed="12.04" duration="86.00" routeLength="994.90" waitingTime="0.00" waitingCount="0" stopTime="0.00" timeLoss="6.17" rerouteNo="0" devices="tripinfo_veh39" vType="passenger" speedFactor="0.90" vaporized=""/>
    <tripinfo id="veh40" depart="158.00" departLane="e1_0" departPos="5.10" departSpeed="0.00" departDelay="9.66" arrival="243.00" arrivalLane="e1_0" arrivalPos="1000.00" arrivalSpeed="13.83" duration="85.00" routeLength="994.90" waitingTime="0.00" waitingCount="0" stopTime="0.00" timeLoss="14.88" rerouteNo="0" devices="tripinfo_veh40" vType="passenger" speedFactor="1.03" vaporized=""/>
    <tripinfo id="veh41" depart="161.00" departLane="e1_0" departPos="5.10" departSpeed="0.00" departDelay="12.63" arrival="245.00" arrivalLane="e1_0" arrivalPos="1000.00" arrivalSpeed="12.66" duration="84.00" routeLength="994.90" waitingTime="0.00" waitingCount="0" stopTime="0.00" timeLoss="8.37" rerouteNo="0" devices="tripinfo_veh41" vType="passenger" speedFactor="0.96" vaporized=""/>
    <tripinfo id="veh42" depart="164.00" departLane="e1_0" departPos="5.10" departSpeed="0.00" departDelay="12.99" arrival="246.00" arrivalLane="e1_0" arrivalPos="1000.00" arrivalSpeed="14.85" duration="82.00" routeLength="994.90" waitingTime="0.00" waitingCount="0" stopTime="0.00" timeLoss="16.24" rerouteNo="0" devices="tripinfo_veh42" vType="passenger" speedFactor="1.09" vaporized=""/>
    <tripinfo id="veh43" depart="167.00" departLane="e1_0" departPos="5.10" departSpeed="0.00" departDelay="15.24" arrival="248.00" arrivalLane="e1_0" arrivalPos="1000.00" arrivalSpeed="13.62" duration="81.00" routeLength="994.90" waitingTime="0.00" waitingCount="0" stopTime="0.00" timeLoss="11.67" rerouteNo="0" devices="tripinfo_veh43" vType="passenger" speedFactor="1.04" vaporized=""/>
    <tripinfo id="veh44" depart="170.00" departLane="e1_0" departPos="5.10" departSpeed="0.00" departDelay="17.13" arrival="250.00" arrivalLane="e1_0" arrivalPos="1000.00" arrivalSpeed="13.53" duration="80.00" routeLength="994.90" waitingTime="0.00" waitingCount="0" stopTime="0.00" timeLoss="10.74" rerouteNo="0" devices="tripinfo_veh44" vType="passenger" speedFactor="1.04" vaporized=""/>
    <tripinfo id="veh45" depart="173.00" departLane="e1_0" departPos="5.10" departSpeed="0.00" departDelay="19.96" arrival="251.00" arrivalLane="e1_0" arrivalPos="1000.00" arrivalSpeed="14.25" duration="78.00" routeLength="994.90" waitingTime="0.00" waitingCount="0" stopTime="0.00" timeLoss="12.15" rerouteNo="0" devices="tripinfo_veh45" vType="passenger" speedFactor="1.09" vaporized=""/>
    <tripinfo id="veh46" depart="176.00" departLane="e1_0" departPos="5.10" departSpeed="0.00" departDelay="21.76" arrival="255.00" arrivalLane="e1_0" arrivalPos="1000.00" arrivalSpeed="13.51" duration="79.00" routeLength="994.90" waitingTime="0.00" waitingCount="0" stopTime="0.00" timeLoss="6.45" rerouteNo="0" devices="tripinfo_veh46" vType="passenger" speedFactor="1.00" vaporized=""/>
    <tripinfo id="veh47" depart="179.00" departLane="e1_0" departPos="5.10" departSpeed="0.00" departDelay="22.09" arrival="266.00" arrivalLane="e1_0" arrivalPos="1000.00" arrivalSpeed="12.23" duration="87.00" routeLength="994.90" waitingTime="0.00" waitingCount="0" stopTime="0.00" timeLoss="6.78" rerouteNo="0" devices="tripinfo_veh47" vType="passenger" speedFactor="0.90" vaporized=""/>
    <tripinfo id="veh48" depart="182.00" departLane="e1_0" departPos="5.10" departSpeed="0.00" departDelay="21.21" arrival="272.00" arrivalLane="e1_0" arrivalPos="1000.00" arrivalSpeed="11.06" duration="90.00" routeLength="994.90" waitingTime="0.00" waitingCount="0" stopTime="0.00" timeLoss="7.57" rerouteNo="0" devices="tripinfo_veh48" vType="passenger" speedFactor="0.88" vaporized=""/>
    <tripinfo id="veh49" depart="185.00" departLane="e1_0" departPos="5.10" departSpeed="0.00" departDelay="21.22" arrival="277.00" arrivalLane="e1_0" arrivalPos="1000.00" arrivalSpeed="10.92" duration="92.00" routeLength="994.90" waitingTime="0.00" waitingCount="0" stopTime="0.00" timeLoss="7.00" rerouteNo="0" devices="tripinfo_veh49" vType="passenger" speedFactor="0.85" vaporized=""/>
    <tripinfo id="veh50" depart="188.00" departLane="e1_0" departPos="5.10" departSpeed="0.00" departDelay="15.42" arrival="280.00" arrivalLane="e1_0" arrivalPos="1000.00" arrivalSpeed="11.55" duration="92.00" routeLength="994.90" waitingTime="0.00" waitingCount="0" stopTime="0.00" timeLoss="7.89" rerouteNo="0" devices="tripinfo_veh50" vType="passenger" speedFactor="0.85" vaporized=""/>
    <tripinfo id="veh51" depart="191.00" departLane="e1_0" departPos="5.10" departSpeed="0.00" departDelay="17.26" arrival="282.00" arrivalLane="e1_0" arrivalPos="1000.00" arrivalSpeed="15.27" duration="91.00" routeLength="994.90" waitingTime="0.00" waitingCount="0" stopTime="0.00" timeLoss="29.10" rerouteNo="0" devices="tripinfo_veh51" vType="passenger" speedFactor="1.17" vaporized=""/>
    <tripinfo id="veh52" depart="194.00" departLane="e1_0" departPos="5.10" departSpeed="0.00" departDelay="18.95" arrival="283.00" arrivalLane="e1_0" arrivalPos="1000.00" arrivalSpeed="13.88" duration="89.00" routeLength="994.90" waitingTime="0.00" waitingCount="0" stopTime="0.00" timeLoss="18.59" rerouteNo="0" devices="tripinfo_veh52" vType="passenger" speedFactor="1.02" vaporized=""/>
    <tripinfo id="veh53" depart="197.00" departLane="e1_0" departPos="5.10" departSpeed="0.00" departDelay="13.97" arrival="285.00" arrivalLane="e1_0" arrivalPos="1000.00" arrivalSpeed="14.89" duration="88.00" routeLength="994.90" waitingTime="0.00" waitingCount="0" stopTime="0.00" timeLoss="22.31" rerouteNo="0" devices="tripinfo_veh53" vType="passenger" speedFactor="1.10" vaporized=""/>
    <tripinfo id="veh54" depart="200.00" departLane="e1_0" departPos="5.10" departSpeed="0.00" departDelay="16.10" arrival="287.00" arrivalLane="e1_0" arrivalPos="1000.00" arrivalSpeed="13.83" duration="87.00" routeLength="994.90" waitingTime="0.00" waitingCount="0" stopTime="0.00" timeLoss="15.15" rerouteNo="0" devices="tripinfo_veh54" vType="passenger" speedFactor="1.00" vaporized=""/>
    <tripinfo id="veh55" depart="203.00" departLane="e1_0" departPos="5.10" departSpeed="0.00" departDelay="17.85" arrival="289.00" arrivalLane="e1_0" arrivalPos="1000.00" arrivalSpeed="13.76" duration="86.00" routeLength="994.90" waitingTime="1.00" waitingCount="1" stopTime="0.00" timeLoss="13.44" rerouteNo="0" devices="tripinfo_veh55" vType="passenger" speedFactor="1.00" vaporized=""/>
    <tripinfo id="veh56" depart="207.00" departLane="e1_0" departPos="5.10" departSpeed="0.00" departDelay="20.78" arrival="295.00" arrivalLane="e1_0" arrivalPos="1000.00" arrivalSpeed="11.74" duration="88.00" routeLength="994.90" waitingTime="0.00" waitingCount="0" stopTime="0.00" timeLoss="7.74" rerouteNo="0" devices="tripinfo_veh56" vType="passenger" speedFactor="0.90" vaporized=""/>
    <tripinfo id="veh57" depart="211.00" departLane="e1_0" departPos="5.10" departSpeed="0.00" departDelay="21.46" arrival="297.00" arrivalLane="e1_0" arrivalPos="1000.00" arrivalSpeed="14.60" duration="86.00" routeLength="994.90" waitingTime="0.00" waitingCount="0" stopTime="0.00" timeLoss="22.49" rerouteNo="0" devices="tripinfo_veh57" vType="passenger" speedFactor="1.14" vaporized=""/>
    <tripinfo id="veh58" depart="214.00" departLane="e1_0" departPos="5.10" departSpeed="0.00" departDelay="21.48" arrival="298.00" arrivalLane="e1_0" arrivalPos="1000.00" arrivalSpeed="13.25" duration="84.00" routeLength="994.90" waitingTime="0.00" waitingCount="0" stopTime="0.00" timeLoss="13.95" rerouteNo="0" devices="tripinfo_veh58" vType="passenger" speedFactor="1.02" vaporized=""/>
    <tripinfo id="veh59" depart="217.00" departLane="e1_0" departPos="5.10" departSpeed="0.00" departDelay="19.89" arrival="300.00" arrivalLane="e1_0" arrivalPos="1000.00" arrivalSpeed="12.24" duration="83.00" routeLength="994.90" waitingTime="0.00" waitingCount="0" stopTime="0.00" timeLoss="8.91" rerouteNo="0" devices="tripinfo_veh59" vType="passenger" speedFactor="0.97" vaporized=""/>
    <tripinfo id="veh60" depart="220.00" departLane="e1_0" departPos="5.10" departSpeed="0.00" departDelay="22.79" arrival="302.00" arrivalLane="e1_0" arrivalPos="1000.00" arrivalSpeed="14.63" duration="82.00" routeLength="994.90" waitingTime="0.00" waitingCount="0" stopTime="0.00" timeLoss="15.08" rerouteNo="0" devices="tripinfo_veh60" vType="passenger" speedFactor="1.08" vaporized=""/>
    <tripinfo id="veh61" depart="223.00" departLane="e1_0" departPos="5.10" departSpeed="0.00" departDelay="24.20" arrival="303.00" arrivalLane="e1_0" arrivalPos="1000.00" arrivalSpeed="15.04" duration="80.00" routeLength="994.90" waitingTime="0.00" waitingCount="0" stopTime="0.00" timeLoss="15.91" rerouteNo="0" devices="tripinfo_veh61" vType="passenger" speedFactor="1.12" vaporized=""/>
    <tripinfo id="veh62" depart="226.00" departLane="e1_0" departPos="5.10" departSpeed="0.00" departDelay="25.29" arrival="305.00" arrivalLane="e1_0" arrivalPos="1000.00" arrivalSpeed="13.48" duration="79.00" routeLength="994.90" waitingTime="0.00" waitingCount="0" stopTime="0.00" timeLoss="8.24" rerouteNo="0" devices="tripinfo_veh62" vType="passenger" speedFactor="1.02" vaporized=""/>
    <tripinfo id="veh63" depart="229.00" departLane="e1_0" departPos="5.10" departSpeed="0.00" departDelay="25.55" arrival="309.00" arrivalLane="e1_0" arrivalPos="1000.00" arrivalSpeed="13.09" duration="80.00" routeLength="994.90" waitingTime="0.00" waitingCount="0" stopTime="0.00" timeLoss="6.59" rerouteNo="0" devices="tripinfo_veh63" vType="passenger" speedFactor="0.99" vaporized=""/>
    <tripinfo id="veh64" depart="232.00" departLane="e1_0" departPos="5.10" departSpeed="0.00" departDelay="28.54" arrival="315.00" arrivalLane="e1_0" arrivalPos="1000.00" arrivalSpeed="12.65" duration="83.00" routeLength="994.90" waitingTime="0.00" waitingCount="0" stopTime="0.00" timeLoss="6.26" rerouteNo="0" devices="tripinfo_veh64" vType="passenger" speedFactor="0.94" vaporized=""/>
    <tripinfo id="veh65" depart="235.00" departLane="e1_0" departPos="5.10" departSpeed="0.00" departDelay="30.18" arrival="324.00" arrivalLane="e1_0" arrivalPos="1000.00" arrivalSpeed="11.71" duration="89.00" routeLength="994.90" waitingTime="0.00" waitingCount="0" stopTime="0.00" timeLoss="7.07" rerouteNo="0" devices="tripinfo_veh65" vType="passenger" speedFactor="0.88" vaporized=""/>
    <tripinfo id="veh66" depart="238.00" departLane="e1_0" departPos="5.10" departSpeed="0.00" departDelay="26.56" arrival="325.00" arrivalLane="e1_0" arrivalPos="1000.00" arrivalSpeed="11.70" duration="87.00" routeLength="994.90" waitingTime="0.00" waitingCount="0" stopTime="0.00" timeLoss="8.08" rerouteNo="0" devices="tripinfo_veh66" vType="passenger" speedFactor="0.91" vaporized=""/>
    <tripinfo id="veh67" depart="241.00" departLane="e1_0" departPos="5.10" departSpeed="0.00" departDelay="27.07" arrival="327.00" arrivalLane="e1_0" arrivalPos="1000.00" arrivalSpeed="12.65" duration="86.00" routeLength="994.90" waitingTime="0.00" waitingCount="0" stopTime="0.00" timeLoss="7.46" rerouteNo="0" devices="tripinfo_veh67" vType="passenger" speedFactor="0.91" vaporized=""/>
    <tripinfo id="veh68" depart="244.00" departLane="e1_0" departPos="5.10" departSpeed="0.00" departDelay="29.46" arrival="329.00" arrivalLane="e1_0" arrivalPos="1000.00" arrivalSpeed="13.55" duration="85.00" routeLength="994.90" waitingTime="0.00" waitingCount="0" stopTime="0.00" timeLoss="15.55" rerouteNo="0" devices="tripinfo_veh68" vType="passenger" speedFactor="1.04" vaporized=""/>
    <tripinfo id="veh69" depart="247.00" departLane="e1_0" departPos="5.10" departSpeed="0.00" departDelay="32.45" arrival="331.00" arrivalLane="e1_0" arrivalPos="1000.00" arrivalSpeed="13.46" duration="84.00" routeLength="994.90" waitingTime="0.00" waitingCount="0" stopTime="0.00" timeLoss="13.09" rerouteNo="0" devices="tripinfo_veh69" vType="passenger" speedFactor="1.02" vaporized=""/>
    <tripinfo id="veh70" depart="250.00" departLane="e1_0" departPos="5.10" departSpeed="0.00" departDelay="34.88" arrival="332.00" arrivalLane="e1_0" arrivalPos="1000.00" arrivalSpeed="13.29" duration="82.00" routeLength="994.90" waitingTime="0.00" waitingCount="0" stopTime="0.00" timeLoss="11.85" rerouteNo="0" devices="tripinfo_veh70" vType="passenger" speedFactor="1.02" vaporized=""/>
    <tripinfo id="veh71" depart="253.00" departLane="e1_0" departPos="5.10" departSpeed="0.00" departDelay="36.32" arrival="334.00" arrivalLane="e1_0" arrivalPos="1000.00" arrivalSpeed="13.46" duration="81.00" routeLength="994.90" waitingTime="0.00" waitingCount="0" stopTime="0.00" timeLoss="6.89" rerouteNo="0" devices="tripinfo_veh71" vType="passenger" speedFactor="0.97" vaporized=""/>
    <tripinfo id="veh72" depart="256.00" departLane="e1_0" departPos="5.10" departSpeed="0.00" departDelay="36.06" arrival="340.00" arrivalLane="e1_0" arrivalPos="1000.00" arrivalSpeed="12.19" duration="84.00" routeLength="994.90" waitingTime="0.00" waitingCount="0" stopTime="0.00" timeLoss="7.16" rerouteNo="0" devices="tripinfo_veh72" vType="passenger" speedFactor="0.94" vaporized=""/>
    <tripinfo id="veh73" depart="259.00" departLane="e1_0" departPos="5.10" departSpeed="0.00" departDelay="38.95" arrival="341.00" arrivalLane="e1_0" arrivalPos="1000.00" arrivalSpeed="13.86" duration="82.00" routeLength="994.90" waitingTime="0.00" waitingCount="0" stopTime="0.00" timeLoss="14.05" rerouteNo="0" devices="tripinfo_veh73" vType="passenger" speedFactor="1.06" vaporized=""/>
    <tripinfo id="veh74" depart="262.00" departLane="e1_0" departPos="5.10" departSpeed="0.00" departDelay="37.97" arrival="343.00" arrivalLane="e1_0" arrivalPos="1000.00" arrivalSpeed="13.18" duration="81.00" routeLength="994.90" waitingTime="0.00" waitingCount="0" stopTime="0.00" timeLoss="6.05" rerouteNo="0" devices="tripinfo_veh74" vType="passenger" speedFactor="0.96" vaporized=""/>